<?xml version="1.0" encoding="UTF-8"?>

<!-- generated on 02/05/20 14:11:21 by Eclipse SUMO Version 1.3.1
<configuration xmlns:xsi="http://www.w3.org/2001/XMLSchema-instance" xsi:noNamespaceSchemaLocation="http://sumo.dlr.de/xsd/sumoConfiguration.xsd">

    <input>
        <net-file value="simpleNetwork.net.xml"/>
        <route-files value="od_route_file.odtrips.rou.xml"/>
    </input>

    <output>
        <tripinfo-output value="tripinfo.xml"/>
    </output>

    <time>
        <begin value="0"/>
        <end value="2000"/>
    </time>

    <traci_server>
        <remote-port value="54735"/>
    </traci_server>

</configuration>
-->

<tripinfos xmlns:xsi="http://www.w3.org/2001/XMLSchema-instance" xsi:noNamespaceSchemaLocation="http://sumo.dlr.de/xsd/tripinfo_file.xsd">
    <tripinfo id="17" depart="163.00" departLane="WB2four-arm_LTL_0" departPos="5.10" departSpeed="13.03" departDelay="-0.02" arrival="315.00" arrivalLane="incoming2EB_0" arrivalPos="304.25" arrivalSpeed="11.82" duration="152.00" routeLength="1879.16" waitingTime="0.00" waitingCount="0" stopTime="0.00" timeLoss="7.29" rerouteNo="0" devices="tripinfo_17" vType="DEFAULT_VEHTYPE" speedFactor="0.94" vaporized=""/>
    <tripinfo id="57" depart="27.00" departLane="NWB2four-arm_LTL_0" departPos="5.10" departSpeed="14.72" departDelay="-0.48" arrival="430.00" arrivalLane="incoming2EB_0" arrivalPos="304.25" arrivalSpeed="14.65" duration="403.00" routeLength="1412.33" waitingTime="301.00" waitingCount="1" stopTime="0.00" timeLoss="307.19" rerouteNo="0" devices="tripinfo_57" vType="DEFAULT_VEHTYPE" speedFactor="1.06" vaporized=""/>
    <tripinfo id="7" depart="401.00" departLane="EB2incoming_0" departPos="5.10" departSpeed="14.31" departDelay="-0.49" arrival="539.00" arrivalLane="four-arm2WB_0" arrivalPos="759.55" arrivalSpeed="13.93" duration="138.00" routeLength="1879.21" waitingTime="0.00" waitingCount="0" stopTime="0.00" timeLoss="6.38" rerouteNo="0" devices="tripinfo_7" vType="DEFAULT_VEHTYPE" speedFactor="1.03" vaporized=""/>
    <tripinfo id="31" depart="423.00" departLane="WB2four-arm_LTL_1" departPos="5.10" departSpeed="14.53" departDelay="-0.68" arrival="587.00" arrivalLane="T2SEB_0" arrivalPos="296.94" arrivalSpeed="13.78" duration="164.00" routeLength="2221.49" waitingTime="0.00" waitingCount="0" stopTime="0.00" timeLoss="9.78" rerouteNo="0" devices="tripinfo_31" vType="DEFAULT_VEHTYPE" speedFactor="1.05" vaporized=""/>
    <tripinfo id="24" depart="436.00" departLane="WB2four-arm_LTL_0" departPos="5.10" departSpeed="12.31" departDelay="-0.43" arrival="598.00" arrivalLane="incoming2EB_0" arrivalPos="304.25" arrivalSpeed="12.28" duration="162.00" routeLength="1879.16" waitingTime="0.00" waitingCount="0" stopTime="0.00" timeLoss="8.33" rerouteNo="0" devices="tripinfo_24" vType="DEFAULT_VEHTYPE" speedFactor="0.89" vaporized=""/>
    <tripinfo id="46" depart="353.00" departLane="NWB2four-arm_LTL_0" departPos="5.10" departSpeed="14.03" departDelay="-0.09" arrival="736.00" arrivalLane="four-arm2WB_0" arrivalPos="759.55" arrivalSpeed="13.09" duration="383.00" routeLength="1068.24" waitingTime="301.00" waitingCount="1" stopTime="0.00" timeLoss="306.91" rerouteNo="0" devices="tripinfo_46" vType="DEFAULT_VEHTYPE" speedFactor="1.01" vaporized=""/>
    <tripinfo id="40" depart="410.00" departLane="WB2four-arm_LTL_0" departPos="5.10" departSpeed="11.54" departDelay="-0.68" arrival="812.00" arrivalLane="four-arm2NWB_0" arrivalPos="313.79" arrivalSpeed="10.24" duration="402.00" routeLength="1068.24" waitingTime="301.00" waitingCount="1" stopTime="0.00" timeLoss="309.62" rerouteNo="0" devices="tripinfo_40" vType="DEFAULT_VEHTYPE" speedFactor="0.83" vaporized=""/>
    <tripinfo id="15" depart="724.00" departLane="WB2four-arm_LTL_0" departPos="5.10" departSpeed="14.26" departDelay="-0.95" arrival="866.00" arrivalLane="incoming2EB_0" arrivalPos="304.25" arrivalSpeed="13.71" duration="142.00" routeLength="1879.16" waitingTime="0.00" waitingCount="0" stopTime="0.00" timeLoss="9.81" rerouteNo="0" devices="tripinfo_15" vType="DEFAULT_VEHTYPE" speedFactor="1.03" vaporized=""/>
    <tripinfo id="1" depart="476.00" departLane="NEB2incoming_LTL_0" departPos="5.10" departSpeed="13.03" departDelay="-0.94" arrival="932.00" arrivalLane="four-arm2WB_0" arrivalPos="759.55" arrivalSpeed="12.07" duration="456.00" routeLength="1885.86" waitingTime="301.00" waitingCount="1" stopTime="0.00" timeLoss="311.59" rerouteNo="0" devices="tripinfo_1" vType="DEFAULT_VEHTYPE" speedFactor="0.94" vaporized=""/>
    <tripinfo id="25" depart="785.00" departLane="WB2four-arm_LTL_0" departPos="5.10" departSpeed="15.60" departDelay="-0.27" arrival="938.00" arrivalLane="T2SEB_0" arrivalPos="296.94" arrivalSpeed="15.52" duration="153.00" routeLength="2221.49" waitingTime="0.00" waitingCount="0" stopTime="0.00" timeLoss="9.29" rerouteNo="0" devices="tripinfo_25" vType="DEFAULT_VEHTYPE" speedFactor="1.12" vaporized=""/>
    <tripinfo id="8" depart="819.00" departLane="EB2incoming_0" departPos="5.10" departSpeed="13.77" departDelay="-0.88" arrival="963.00" arrivalLane="four-arm2WB_0" arrivalPos="759.55" arrivalSpeed="13.46" duration="144.00" routeLength="1879.21" waitingTime="0.00" waitingCount="0" stopTime="0.00" timeLoss="6.75" rerouteNo="0" devices="tripinfo_8" vType="DEFAULT_VEHTYPE" speedFactor="0.99" vaporized=""/>
    <tripinfo id="22" depart="842.00" departLane="WB2four-arm_LTL_0" departPos="5.10" departSpeed="12.20" departDelay="-0.52" arrival="1005.00" arrivalLane="incoming2EB_0" arrivalPos="304.25" arrivalSpeed="11.61" duration="163.00" routeLength="1879.16" waitingTime="0.00" waitingCount="0" stopTime="0.00" timeLoss="8.27" rerouteNo="0" devices="tripinfo_22" vType="DEFAULT_VEHTYPE" speedFactor="0.88" vaporized=""/>
    <tripinfo id="47" depart="363.00" departLane="NWB2four-arm_LTL_1" departPos="5.10" departSpeed="15.04" departDelay="-0.29" arrival="1038.00" arrivalLane="four-arm2WB_0" arrivalPos="759.55" arrivalSpeed="14.40" duration="675.00" routeLength="1068.24" waitingTime="593.00" waitingCount="2" stopTime="0.00" timeLoss="603.87" rerouteNo="0" devices="tripinfo_47" vType="DEFAULT_VEHTYPE" speedFactor="1.08" vaporized=""/>
    <tripinfo id="37" depart="557.00" departLane="WB2four-arm_LTL_0" departPos="5.10" departSpeed="11.90" departDelay="-0.09" arrival="1116.00" arrivalLane="four-arm2NWB_0" arrivalPos="313.79" arrivalSpeed="11.30" duration="559.00" routeLength="1068.24" waitingTime="458.00" waitingCount="2" stopTime="0.00" timeLoss="469.25" rerouteNo="0" devices="tripinfo_37" vType="DEFAULT_VEHTYPE" speedFactor="0.86" vaporized=""/>
    <tripinfo id="13" depart="666.00" departLane="SEB2T_0" departPos="5.10" departSpeed="15.15" departDelay="-0.67" arrival="1123.00" arrivalLane="four-arm2WB_0" arrivalPos="759.55" arrivalSpeed="14.45" duration="457.00" routeLength="2167.96" waitingTime="301.00" waitingCount="1" stopTime="0.00" timeLoss="313.01" rerouteNo="0" devices="tripinfo_13" vType="DEFAULT_VEHTYPE" speedFactor="1.09" vaporized=""/>
    <tripinfo id="3" depart="754.00" departLane="NEB2incoming_LTL_1" departPos="5.10" departSpeed="14.54" departDelay="-0.69" arrival="1222.00" arrivalLane="four-arm2WB_0" arrivalPos="759.55" arrivalSpeed="13.87" duration="468.00" routeLength="1885.86" waitingTime="329.00" waitingCount="2" stopTime="0.00" timeLoss="338.61" rerouteNo="0" devices="tripinfo_3" vType="DEFAULT_VEHTYPE" speedFactor="1.05" vaporized=""/>
    <tripinfo id="55" depart="891.00" departLane="NWB2four-arm_LTL_1" departPos="5.10" departSpeed="13.08" departDelay="-0.90" arrival="1308.00" arrivalLane="incoming2EB_0" arrivalPos="304.25" arrivalSpeed="12.82" duration="417.00" routeLength="1412.33" waitingTime="301.00" waitingCount="1" stopTime="0.00" timeLoss="309.34" rerouteNo="0" devices="tripinfo_55" vType="DEFAULT_VEHTYPE" speedFactor="0.94" vaporized=""/>
    <tripinfo id="51" depart="1034.00" departLane="NWB2four-arm_LTL_0" departPos="5.10" departSpeed="16.09" departDelay="-0.54" arrival="1407.00" arrivalLane="four-arm2WB_0" arrivalPos="759.55" arrivalSpeed="15.33" duration="373.00" routeLength="1068.24" waitingTime="301.00" waitingCount="1" stopTime="0.00" timeLoss="306.08" rerouteNo="0" devices="tripinfo_51" vType="DEFAULT_VEHTYPE" speedFactor="1.16" vaporized=""/>
    <tripinfo id="38" depart="833.00" departLane="WB2four-arm_LTL_0" departPos="5.10" departSpeed="12.87" departDelay="-0.34" arrival="1420.00" arrivalLane="four-arm2NWB_0" arrivalPos="313.79" arrivalSpeed="12.29" duration="587.00" routeLength="1068.24" waitingTime="493.00" waitingCount="2" stopTime="0.00" timeLoss="503.55" rerouteNo="0" devices="tripinfo_38" vType="DEFAULT_VEHTYPE" speedFactor="0.93" vaporized=""/>
    <tripinfo id="5" depart="1283.00" departLane="EB2incoming_0" departPos="5.10" departSpeed="12.36" departDelay="-0.82" arrival="1445.00" arrivalLane="four-arm2WB_0" arrivalPos="759.55" arrivalSpeed="12.24" duration="162.00" routeLength="1879.21" waitingTime="0.00" waitingCount="0" stopTime="0.00" timeLoss="9.07" rerouteNo="0" devices="tripinfo_5" vType="DEFAULT_VEHTYPE" speedFactor="0.89" vaporized=""/>
    <tripinfo id="33" depart="1302.00" departLane="WB2four-arm_LTL_0" departPos="5.10" departSpeed="11.47" departDelay="-0.21" arrival="1512.00" arrivalLane="T2SEB_0" arrivalPos="296.94" arrivalSpeed="10.79" duration="210.00" routeLength="2221.49" waitingTime="0.00" waitingCount="0" stopTime="0.00" timeLoss="13.54" rerouteNo="0" devices="tripinfo_33" vType="DEFAULT_VEHTYPE" speedFactor="0.83" vaporized=""/>
    <tripinfo id="59" depart="997.00" departLane="NWB2four-arm_LTL_0" departPos="5.10" departSpeed="13.00" departDelay="-0.76" arrival="1614.00" arrivalLane="incoming2EB_0" arrivalPos="304.25" arrivalSpeed="11.86" duration="617.00" routeLength="1412.33" waitingTime="497.00" waitingCount="2" stopTime="0.00" timeLoss="508.35" rerouteNo="0" devices="tripinfo_59" vType="DEFAULT_VEHTYPE" speedFactor="0.94" vaporized=""/>
    <tripinfo id="52" depart="1130.00" departLane="NWB2four-arm_LTL_0" departPos="5.10" departSpeed="14.14" departDelay="-0.77" arrival="1717.00" arrivalLane="four-arm2WB_0" arrivalPos="759.55" arrivalSpeed="13.49" duration="587.00" routeLength="1068.24" waitingTime="503.00" waitingCount="2" stopTime="0.00" timeLoss="511.85" rerouteNo="0" devices="tripinfo_52" vType="DEFAULT_VEHTYPE" speedFactor="1.02" vaporized=""/>
    <tripinfo id="20" depart="1651.00" departLane="WB2four-arm_LTL_0" departPos="5.10" departSpeed="12.74" departDelay="-0.42" arrival="1807.00" arrivalLane="incoming2EB_0" arrivalPos="304.25" arrivalSpeed="12.36" duration="156.00" routeLength="1879.16" waitingTime="0.00" waitingCount="0" stopTime="0.00" timeLoss="7.74" rerouteNo="0" devices="tripinfo_20" vType="DEFAULT_VEHTYPE" speedFactor="0.92" vaporized=""/>
    <tripinfo id="12" depart="1372.00" departLane="SEB2T_0" departPos="5.10" departSpeed="12.12" departDelay="-0.68" arrival="1869.00" arrivalLane="four-arm2WB_0" arrivalPos="759.55" arrivalSpeed="10.89" duration="497.00" routeLength="2167.96" waitingTime="301.00" waitingCount="1" stopTime="0.00" timeLoss="316.93" rerouteNo="0" devices="tripinfo_12" vType="DEFAULT_VEHTYPE" speedFactor="0.87" vaporized=""/>
    <tripinfo id="26" depart="1752.00" departLane="WB2four-arm_LTL_0" departPos="5.10" departSpeed="15.72" departDelay="-0.65" arrival="1904.00" arrivalLane="T2SEB_0" arrivalPos="296.94" arrivalSpeed="14.45" duration="152.00" routeLength="2221.49" waitingTime="0.00" waitingCount="0" stopTime="0.00" timeLoss="8.98" rerouteNo="0" devices="tripinfo_26" vType="DEFAULT_VEHTYPE" speedFactor="1.13" vaporized=""/>
    <tripinfo id="58" depart="1184.00" departLane="NWB2four-arm_LTL_0" departPos="5.10" departSpeed="14.03" departDelay="-0.71" arrival="1918.00" arrivalLane="incoming2EB_0" arrivalPos="304.25" arrivalSpeed="13.16" duration="734.00" routeLength="1412.33" waitingTime="612.00" waitingCount="3" stopTime="0.00" timeLoss="632.93" rerouteNo="0" devices="tripinfo_58" vType="DEFAULT_VEHTYPE" speedFactor="1.01" vaporized=""/>
    <tripinfo id="16" depart="1848.00" departLane="WB2four-arm_LTL_0" departPos="5.10" departSpeed="13.96" departDelay="-0.48" arrival="1990.00" arrivalLane="incoming2EB_0" arrivalPos="304.25" arrivalSpeed="13.93" duration="142.00" routeLength="1879.16" waitingTime="0.00" waitingCount="0" stopTime="0.00" timeLoss="7.10" rerouteNo="0" devices="tripinfo_16" vType="DEFAULT_VEHTYPE" speedFactor="1.01" vaporized=""/>
    <tripinfo id="53" depart="1669.00" departLane="NWB2four-arm_LTL_0" departPos="5.10" departSpeed="13.18" departDelay="-0.56" arrival="2057.00" arrivalLane="four-arm2WB_0" arrivalPos="759.55" arrivalSpeed="12.21" duration="388.00" routeLength="1068.24" waitingTime="301.00" waitingCount="1" stopTime="0.00" timeLoss="306.74" rerouteNo="0" devices="tripinfo_53" vType="DEFAULT_VEHTYPE" speedFactor="0.95" vaporized=""/>
    <tripinfo id="23" depart="1943.00" departLane="WB2four-arm_LTL_0" departPos="5.10" departSpeed="16.28" departDelay="-0.63" arrival="2064.00" arrivalLane="incoming2EB_0" arrivalPos="304.25" arrivalSpeed="16.06" duration="121.00" routeLength="1879.16" waitingTime="0.00" waitingCount="0" stopTime="0.00" timeLoss="4.74" rerouteNo="0" devices="tripinfo_23" vType="DEFAULT_VEHTYPE" speedFactor="1.17" vaporized=""/>
    <tripinfo id="42" depart="1762.00" departLane="WB2four-arm_LTL_1" departPos="5.10" departSpeed="12.94" departDelay="-0.81" arrival="2154.00" arrivalLane="four-arm2NWB_0" arrivalPos="313.79" arrivalSpeed="11.87" duration="392.00" routeLength="1068.24" waitingTime="301.00" waitingCount="1" stopTime="0.00" timeLoss="309.16" rerouteNo="0" devices="tripinfo_42" vType="DEFAULT_VEHTYPE" speedFactor="0.93" vaporized=""/>
    <tripinfo id="62" depart="1238.00" departLane="NWB2four-arm_LTL_0" departPos="5.10" departSpeed="13.54" departDelay="-0.90" arrival="2219.00" arrivalLane="incoming2EB_0" arrivalPos="304.25" arrivalSpeed="13.31" duration="981.00" routeLength="1412.33" waitingTime="863.00" waitingCount="3" stopTime="0.00" timeLoss="876.36" rerouteNo="0" devices="tripinfo_62" vType="DEFAULT_VEHTYPE" speedFactor="0.98" vaporized=""/>
    <tripinfo id="28" depart="2116.00" departLane="WB2four-arm_LTL_0" departPos="5.10" departSpeed="16.39" departDelay="-0.75" arrival="2261.00" arrivalLane="T2SEB_0" arrivalPos="296.94" arrivalSpeed="15.96" duration="145.00" routeLength="2221.49" waitingTime="0.00" waitingCount="0" stopTime="0.00" timeLoss="8.51" rerouteNo="0" devices="tripinfo_28" vType="DEFAULT_VEHTYPE" speedFactor="1.18" vaporized=""/>
    <tripinfo id="2" depart="1847.00" departLane="NEB2incoming_LTL_0" departPos="5.10" departSpeed="16.04" departDelay="-0.70" arrival="2275.00" arrivalLane="four-arm2WB_0" arrivalPos="759.55" arrivalSpeed="15.02" duration="428.00" routeLength="1885.86" waitingTime="301.00" waitingCount="1" stopTime="0.00" timeLoss="310.31" rerouteNo="0" devices="tripinfo_2" vType="DEFAULT_VEHTYPE" speedFactor="1.15" vaporized=""/>
    <tripinfo id="45" depart="1822.00" departLane="NWB2four-arm_LTL_0" departPos="5.10" departSpeed="16.37" departDelay="-0.07" arrival="2348.00" arrivalLane="four-arm2WB_0" arrivalPos="759.55" arrivalSpeed="16.22" duration="526.00" routeLength="1068.24" waitingTime="452.00" waitingCount="2" stopTime="0.00" timeLoss="461.10" rerouteNo="0" devices="tripinfo_45" vType="DEFAULT_VEHTYPE" speedFactor="1.18" vaporized=""/>
    <tripinfo id="32" depart="2169.00" departLane="WB2four-arm_LTL_0" departPos="5.10" departSpeed="12.51" departDelay="-0.75" arrival="2362.00" arrivalLane="T2SEB_0" arrivalPos="296.94" arrivalSpeed="11.65" duration="193.00" routeLength="2221.49" waitingTime="0.00" waitingCount="0" stopTime="0.00" timeLoss="13.09" rerouteNo="0" devices="tripinfo_32" vType="DEFAULT_VEHTYPE" speedFactor="0.90" vaporized=""/>
    <tripinfo id="18" depart="2239.00" departLane="WB2four-arm_LTL_0" departPos="5.10" departSpeed="13.29" departDelay="-0.54" arrival="2388.00" arrivalLane="incoming2EB_0" arrivalPos="304.25" arrivalSpeed="13.03" duration="149.00" routeLength="1879.16" waitingTime="0.00" waitingCount="0" stopTime="0.00" timeLoss="7.17" rerouteNo="0" devices="tripinfo_18" vType="DEFAULT_VEHTYPE" speedFactor="0.96" vaporized=""/>
    <tripinfo id="9" depart="2300.00" departLane="EB2incoming_0" departPos="5.10" departSpeed="15.11" departDelay="-0.46" arrival="2431.00" arrivalLane="four-arm2WB_0" arrivalPos="759.55" arrivalSpeed="14.98" duration="131.00" routeLength="1879.21" waitingTime="0.00" waitingCount="0" stopTime="0.00" timeLoss="5.81" rerouteNo="0" devices="tripinfo_9" vType="DEFAULT_VEHTYPE" speedFactor="1.09" vaporized=""/>
    <tripinfo id="34" depart="2279.00" departLane="WB2four-arm_LTL_0" departPos="5.10" departSpeed="14.49" departDelay="-0.74" arrival="2444.00" arrivalLane="T2SEB_0" arrivalPos="296.94" arrivalSpeed="14.11" duration="165.00" routeLength="2221.49" waitingTime="0.00" waitingCount="0" stopTime="0.00" timeLoss="10.37" rerouteNo="0" devices="tripinfo_34" vType="DEFAULT_VEHTYPE" speedFactor="1.04" vaporized=""/>
    <tripinfo id="10" depart="2015.00" departLane="SEB2T_0" departPos="5.10" departSpeed="14.16" departDelay="-0.92" arrival="2481.00" arrivalLane="four-arm2WB_0" arrivalPos="759.55" arrivalSpeed="13.21" duration="466.00" routeLength="2167.96" waitingTime="301.00" waitingCount="1" stopTime="0.00" timeLoss="312.33" rerouteNo="0" devices="tripinfo_10" vType="DEFAULT_VEHTYPE" speedFactor="1.02" vaporized=""/>
    <tripinfo id="27" depart="2313.00" departLane="WB2four-arm_LTL_0" departPos="5.10" departSpeed="13.85" departDelay="-0.26" arrival="2486.00" arrivalLane="T2SEB_0" arrivalPos="296.94" arrivalSpeed="13.56" duration="173.00" routeLength="2221.49" waitingTime="0.00" waitingCount="0" stopTime="0.00" timeLoss="10.75" rerouteNo="0" devices="tripinfo_27" vType="DEFAULT_VEHTYPE" speedFactor="1.00" vaporized=""/>
    <tripinfo id="43" depart="2104.00" departLane="WB2four-arm_LTL_0" departPos="5.10" departSpeed="13.52" departDelay="-0.54" arrival="2490.00" arrivalLane="four-arm2NWB_0" arrivalPos="313.79" arrivalSpeed="12.32" duration="386.00" routeLength="1068.24" waitingTime="301.00" waitingCount="1" stopTime="0.00" timeLoss="307.36" rerouteNo="0" devices="tripinfo_43" vType="DEFAULT_VEHTYPE" speedFactor="0.97" vaporized=""/>
    <tripinfo id="19" depart="2436.00" departLane="WB2four-arm_LTL_0" departPos="5.10" departSpeed="11.81" departDelay="-0.32" arrival="2605.00" arrivalLane="incoming2EB_0" arrivalPos="304.25" arrivalSpeed="11.18" duration="169.00" routeLength="1879.16" waitingTime="0.00" waitingCount="0" stopTime="0.00" timeLoss="9.38" rerouteNo="0" devices="tripinfo_19" vType="DEFAULT_VEHTYPE" speedFactor="0.85" vaporized=""/>
    <tripinfo id="56" depart="2252.00" departLane="NWB2four-arm_LTL_1" departPos="5.10" departSpeed="14.41" departDelay="-0.80" arrival="2658.00" arrivalLane="incoming2EB_0" arrivalPos="304.25" arrivalSpeed="14.08" duration="406.00" routeLength="1412.33" waitingTime="301.00" waitingCount="1" stopTime="0.00" timeLoss="308.32" rerouteNo="0" devices="tripinfo_56" vType="DEFAULT_VEHTYPE" speedFactor="1.04" vaporized=""/>
    <tripinfo id="54" depart="1972.00" departLane="NWB2four-arm_LTL_1" departPos="5.10" departSpeed="13.82" departDelay="-0.95" arrival="2663.00" arrivalLane="four-arm2WB_0" arrivalPos="759.55" arrivalSpeed="13.09" duration="691.00" routeLength="1068.24" waitingTime="599.00" waitingCount="2" stopTime="0.00" timeLoss="613.41" rerouteNo="0" devices="tripinfo_54" vType="DEFAULT_VEHTYPE" speedFactor="0.99" vaporized=""/>
    <tripinfo id="14" depart="2248.00" departLane="SEB2T_0" departPos="5.10" departSpeed="15.17" departDelay="-0.33" arrival="2778.00" arrivalLane="four-arm2WB_0" arrivalPos="759.55" arrivalSpeed="15.11" duration="530.00" routeLength="2167.96" waitingTime="371.00" waitingCount="2" stopTime="0.00" timeLoss="386.00" rerouteNo="0" devices="tripinfo_14" vType="DEFAULT_VEHTYPE" speedFactor="1.09" vaporized=""/>
    <tripinfo id="41" depart="2138.00" departLane="WB2four-arm_LTL_1" departPos="5.10" departSpeed="15.31" departDelay="-0.70" arrival="2793.00" arrivalLane="four-arm2NWB_0" arrivalPos="313.79" arrivalSpeed="14.59" duration="655.00" routeLength="1068.24" waitingTime="576.00" waitingCount="2" stopTime="0.00" timeLoss="585.62" rerouteNo="0" devices="tripinfo_41" vType="DEFAULT_VEHTYPE" speedFactor="1.10" vaporized=""/>
    <tripinfo id="0" depart="2488.00" departLane="NEB2incoming_LTL_0" departPos="5.10" departSpeed="16.24" departDelay="-0.08" arrival="2912.00" arrivalLane="four-arm2WB_0" arrivalPos="759.55" arrivalSpeed="16.13" duration="424.00" routeLength="1885.86" waitingTime="301.00" waitingCount="1" stopTime="0.00" timeLoss="308.04" rerouteNo="0" devices="tripinfo_0" vType="DEFAULT_VEHTYPE" speedFactor="1.17" vaporized=""/>
    <tripinfo id="61" depart="2341.00" departLane="NWB2four-arm_LTL_0" departPos="5.10" departSpeed="12.51" departDelay="-0.13" arrival="2975.00" arrivalLane="incoming2EB_0" arrivalPos="304.25" arrivalSpeed="11.53" duration="634.00" routeLength="1412.33" waitingTime="510.00" waitingCount="2" stopTime="0.00" timeLoss="521.19" rerouteNo="0" devices="tripinfo_61" vType="DEFAULT_VEHTYPE" speedFactor="0.90" vaporized=""/>
    <tripinfo id="6" depart="2852.00" departLane="EB2incoming_0" departPos="5.10" departSpeed="13.83" departDelay="-0.53" arrival="2995.00" arrivalLane="four-arm2WB_0" arrivalPos="759.55" arrivalSpeed="13.29" duration="143.00" routeLength="1879.21" waitingTime="0.00" waitingCount="0" stopTime="0.00" timeLoss="6.96" rerouteNo="0" devices="tripinfo_6" vType="DEFAULT_VEHTYPE" speedFactor="1.00" vaporized=""/>
    <tripinfo id="44" depart="2198.00" departLane="WB2four-arm_LTL_0" departPos="5.10" departSpeed="14.31" departDelay="-0.82" arrival="3100.00" arrivalLane="four-arm2NWB_0" arrivalPos="313.79" arrivalSpeed="13.45" duration="902.00" routeLength="1068.24" waitingTime="813.00" waitingCount="3" stopTime="0.00" timeLoss="827.23" rerouteNo="0" devices="tripinfo_44" vType="DEFAULT_VEHTYPE" speedFactor="1.03" vaporized=""/>
    <tripinfo id="29" depart="3001.00" departLane="WB2four-arm_LTL_0" departPos="5.10" departSpeed="13.47" departDelay="-0.37" arrival="3179.00" arrivalLane="T2SEB_0" arrivalPos="296.94" arrivalSpeed="12.92" duration="178.00" routeLength="2221.49" waitingTime="0.00" waitingCount="0" stopTime="0.00" timeLoss="10.94" rerouteNo="0" devices="tripinfo_29" vType="DEFAULT_VEHTYPE" speedFactor="0.97" vaporized=""/>
    <tripinfo id="48" depart="2807.00" departLane="NWB2four-arm_LTL_0" departPos="5.10" departSpeed="13.93" departDelay="-0.46" arrival="3192.00" arrivalLane="four-arm2WB_0" arrivalPos="759.55" arrivalSpeed="12.78" duration="385.00" routeLength="1068.24" waitingTime="301.00" waitingCount="1" stopTime="0.00" timeLoss="308.15" rerouteNo="0" devices="tripinfo_48" vType="DEFAULT_VEHTYPE" speedFactor="1.00" vaporized=""/>
    <tripinfo id="63" depart="2442.00" departLane="NWB2four-arm_LTL_0" departPos="5.10" departSpeed="11.87" departDelay="-0.60" arrival="3285.00" arrivalLane="incoming2EB_0" arrivalPos="304.25" arrivalSpeed="11.23" duration="843.00" routeLength="1412.33" waitingTime="708.00" waitingCount="3" stopTime="0.00" timeLoss="724.07" rerouteNo="0" devices="tripinfo_63" vType="DEFAULT_VEHTYPE" speedFactor="0.85" vaporized=""/>
    <tripinfo id="21" depart="3181.00" departLane="WB2four-arm_LTL_0" departPos="5.10" departSpeed="15.04" departDelay="-0.59" arrival="3312.00" arrivalLane="incoming2EB_0" arrivalPos="304.25" arrivalSpeed="13.83" duration="131.00" routeLength="1879.16" waitingTime="0.00" waitingCount="0" stopTime="0.00" timeLoss="5.77" rerouteNo="0" devices="tripinfo_21" vType="DEFAULT_VEHTYPE" speedFactor="1.08" vaporized=""/>
    <tripinfo id="11" depart="2901.00" departLane="SEB2T_0" departPos="5.10" departSpeed="15.87" departDelay="-0.62" arrival="3349.00" arrivalLane="four-arm2WB_0" arrivalPos="759.55" arrivalSpeed="15.00" duration="448.00" routeLength="2167.96" waitingTime="301.00" waitingCount="1" stopTime="0.00" timeLoss="310.17" rerouteNo="0" devices="tripinfo_11" vType="DEFAULT_VEHTYPE" speedFactor="1.14" vaporized=""/>
    <tripinfo id="4" depart="2950.00" departLane="NEB2incoming_LTL_0" departPos="5.10" departSpeed="14.22" departDelay="-0.16" arrival="3393.00" arrivalLane="four-arm2WB_0" arrivalPos="759.55" arrivalSpeed="13.24" duration="443.00" routeLength="1885.86" waitingTime="301.00" waitingCount="1" stopTime="0.00" timeLoss="310.63" rerouteNo="0" devices="tripinfo_4" vType="DEFAULT_VEHTYPE" speedFactor="1.02" vaporized=""/>
    <tripinfo id="39" depart="2359.00" departLane="WB2four-arm_LTL_0" departPos="5.10" departSpeed="12.18" departDelay="-0.25" arrival="3410.00" arrivalLane="four-arm2NWB_0" arrivalPos="313.79" arrivalSpeed="11.94" duration="1051.00" routeLength="1068.24" waitingTime="941.00" waitingCount="4" stopTime="0.00" timeLoss="963.60" rerouteNo="0" devices="tripinfo_39" vType="DEFAULT_VEHTYPE" speedFactor="0.88" vaporized=""/>
    <tripinfo id="30" depart="3363.00" departLane="WB2four-arm_LTL_0" departPos="5.10" departSpeed="14.11" departDelay="-0.45" arrival="3533.00" arrivalLane="T2SEB_0" arrivalPos="296.94" arrivalSpeed="14.03" duration="170.00" routeLength="2221.49" waitingTime="0.00" waitingCount="0" stopTime="0.00" timeLoss="10.75" rerouteNo="0" devices="tripinfo_30" vType="DEFAULT_VEHTYPE" speedFactor="1.02" vaporized=""/>
    <tripinfo id="60" depart="2573.00" departLane="NWB2four-arm_LTL_0" departPos="5.10" departSpeed="14.12" departDelay="-0.19" arrival="3573.00" arrivalLane="incoming2EB_0" arrivalPos="304.25" arrivalSpeed="13.14" duration="1000.00" routeLength="1412.33" waitingTime="885.00" waitingCount="3" stopTime="0.00" timeLoss="900.02" rerouteNo="0" devices="tripinfo_60" vType="DEFAULT_VEHTYPE" speedFactor="1.02" vaporized=""/>
    <tripinfo id="35" depart="2587.00" departLane="WB2four-arm_LTL_0" departPos="5.10" departSpeed="15.22" departDelay="-0.01" arrival="3710.00" arrivalLane="four-arm2NWB_0" arrivalPos="313.79" arrivalSpeed="14.98" duration="1123.00" routeLength="1068.24" waitingTime="1032.00" waitingCount="4" stopTime="0.00" timeLoss="1052.44" rerouteNo="0" devices="tripinfo_35" vType="DEFAULT_VEHTYPE" speedFactor="1.10" vaporized=""/>
    <tripinfo id="50" depart="3425.00" departLane="NWB2four-arm_LTL_0" departPos="5.10" departSpeed="13.71" departDelay="-0.09" arrival="3810.00" arrivalLane="four-arm2WB_0" arrivalPos="759.55" arrivalSpeed="13.17" duration="385.00" routeLength="1068.24" waitingTime="301.00" waitingCount="1" stopTime="0.00" timeLoss="307.28" rerouteNo="0" devices="tripinfo_50" vType="DEFAULT_VEHTYPE" speedFactor="0.99" vaporized=""/>
    <tripinfo id="64" depart="3225.00" departLane="NWB2four-arm_LTL_0" departPos="5.10" departSpeed="15.55" departDelay="-0.98" arrival="3872.00" arrivalLane="incoming2EB_0" arrivalPos="304.25" arrivalSpeed="15.01" duration="647.00" routeLength="1412.33" waitingTime="545.00" waitingCount="2" stopTime="0.00" timeLoss="555.61" rerouteNo="0" devices="tripinfo_64" vType="DEFAULT_VEHTYPE" speedFactor="1.12" vaporized=""/>
    <tripinfo id="36" depart="2896.00" departLane="WB2four-arm_LTL_0" departPos="5.10" departSpeed="12.49" departDelay="-0.69" arrival="4020.00" arrivalLane="four-arm2NWB_0" arrivalPos="313.79" arrivalSpeed="11.45" duration="1124.00" routeLength="1068.24" waitingTime="1018.00" waitingCount="4" stopTime="0.00" timeLoss="1038.09" rerouteNo="0" devices="tripinfo_36" vType="DEFAULT_VEHTYPE" speedFactor="0.90" vaporized=""/>
    <tripinfo id="49" depart="3573.00" departLane="NWB2four-arm_LTL_0" departPos="5.10" departSpeed="13.02" departDelay="-0.33" arrival="4118.00" arrivalLane="four-arm2WB_0" arrivalPos="759.55" arrivalSpeed="13.00" duration="545.00" routeLength="1068.24" waitingTime="452.00" waitingCount="2" stopTime="0.00" timeLoss="462.79" rerouteNo="0" devices="tripinfo_49" vType="DEFAULT_VEHTYPE" speedFactor="0.94" vaporized=""/>
</tripinfos>
